13
Properties=species:S:1:pos:R:3:molID:I:1:R:3 Nmols=1 Comp=VC(3) HF_energy=-6247.0708459 pbc="F F F"
C	-1.7779268	0.0680064	0.2739545	0	
C	-0.4681301	-0.0976264	-0.5169371	0	
C	0.7656772	0.0815904	0.3762109	0	
C	2.0549406	-0.0756107	-0.3893694	0	
O	2.1199940	-0.3163443	-1.5726149	0	
H	-1.8390609	1.0564730	0.7172728	0	
H	-1.8429946	-0.6649456	1.0713825	0	
H	-2.6362105	-0.0635182	-0.3749365	0	
H	-0.4328210	-1.0787193	-0.9744091	0	
H	-0.4278071	0.6245461	-1.3230859	0	
H	0.7653644	1.0653336	0.8410331	0	
H	0.7626807	-0.6434800	1.1874318	0	
H	2.9563041	0.0442951	0.2068676	0	
11
Properties=species:S:1:pos:R:3:molID:I:1:R:3 Nmols=1 Comp=VC(3) HF_energy=-7216.7409906 pbc="F F F"
O	-1.2572600	0.6696249	-0.8109279	0	
C	-0.9255167	-0.2121781	0.2839592	0	
C	0.5073852	-0.6698641	0.0154443	0	
C	1.4372170	0.5190405	-0.0393513	0	
O	2.5263327	0.5598032	0.4861788	0	
H	-2.1314640	1.0634993	-0.6963722	0	
H	-1.5907349	-1.0664393	0.3170318	0	
H	-0.9829377	0.3058214	1.2351132	0	
H	0.5203288	-1.1581017	-0.9539044	0	
H	0.8526119	-1.3624662	0.7704033	0	
H	1.0440376	1.3512603	-0.6075648	0	
10
Properties=species:S:1:pos:R:3:molID:I:1:R:3 Nmols=1 Comp=VC(3) HF_energy=-5191.5770193 pbc="F F F"
C	-1.1370719	0.2552249	0.1347733	0	
C	0.1216197	-0.5917483	-0.0880866	0	
C	1.3723184	0.2514828	-0.0891315	0	
O	1.3857465	1.4505449	0.0634159	0	
H	-1.0790211	0.7745629	1.0824782	0	
H	-2.0240344	-0.3660180	0.1324055	0	
H	-1.2325420	1.0004480	-0.6441431	0	
H	0.2256852	-1.3486234	0.6854766	0	
H	0.0724053	-1.1224870	-1.0357964	0	
H	2.2949043	-0.3033870	-0.2413821	0	
8
Properties=species:S:1:pos:R:3:molID:I:1:R:3 Nmols=1 Comp=VC(3) HF_energy=-6161.1767921 pbc="F F F"
O	-1.4826046	0.2944351	0.0438175	0	
C	-0.3401422	-0.5569493	0.0027820	0	
C	0.9272585	0.2624847	-0.0224413	0	
O	0.9005031	1.4723756	-0.0074351	0	
H	-1.1808500	1.2163984	0.0470224	0	
H	-0.3153118	-1.2068753	0.8711937	0	
H	-0.3634201	-1.1866321	-0.8804420	0	
H	1.8545672	-0.2952470	-0.0545071	0	
6
Properties=species:S:1:pos:R:3:molID:I:1:R:3 Nmols=1 Comp=VC(3) HF_energy=-5127.6182348 pbc="F F F"
O	-1.7747258	0.6984559	-0.7492325	0	
C	-1.1039785	-0.0368228	-0.0628277	0	
C	0.3381123	0.0068172	0.0232806	0	
C	1.5234707	0.0493363	0.0880124	0	
H	-1.5554754	-0.8016646	0.5527597	0	
H	2.5725867	0.0838681	0.1480074	0	
12
Properties=species:S:1:pos:R:3:molID:I:1:R:3 Nmols=1 Comp=VC(3) HF_energy=-9242.8883750 pbc="F F F"
O	-1.2372178	1.0939095	0.8991592	0	
C	-1.2101887	-0.2329023	0.3692349	0	
C	0.1713226	-0.8873888	0.4617568	0	
O	1.0102205	-0.6707121	-0.7256207	0	
C	1.3895121	0.5506614	-1.0993377	0	
O	1.0165258	1.5840395	-0.6000178	0	
H	-0.5556607	1.6268903	0.4607476	0	
H	-1.5501975	-0.2835394	-0.6599552	0	
H	-1.8939669	-0.8077564	0.9759970	0	
H	0.0966813	-1.9597952	0.5083092	0	
H	0.6844812	-0.5066893	1.3323071	0	
H	2.0784781	0.4932827	-1.9225704	0	
16
Properties=species:S:1:pos:R:3:molID:I:1:R:3 Nmols=1 Comp=VC(3) HF_energy=-7302.6260406 pbc="F F F"
C	-1.1379184	-0.8956071	-0.5050083	0	
C	-0.2198805	0.3255231	-0.3085069	0	
C	-0.9995179	1.4779427	0.3502826	0	
C	1.0018380	-0.0435779	0.5466398	0	
C	1.9751872	-0.9589583	-0.1522762	0	
O	1.8673656	-1.3425986	-1.2946773	0	
H	-1.9964314	-0.6301511	-1.1123541	0	
H	-1.5000479	-1.2515737	0.4551148	0	
H	-0.6038800	-1.6939498	-1.0008472	0	
H	0.1362397	0.6458437	-1.2803982	0	
H	-0.3765314	2.3589453	0.4661080	0	
H	-1.8584505	1.7485372	-0.2538483	0	
H	-1.3571123	1.1811417	1.3315801	0	
H	1.5540171	0.8519922	0.8284294	0	
H	0.6879370	-0.5165476	1.4747420	0	
H	2.8271858	-1.2569518	0.4550198	0	
14
Properties=species:S:1:pos:R:3:molID:I:1:R:3 Nmols=1 Comp=VC(3) HF_energy=-8273.1026730 pbc="F F F"
C	-2.1426211	0.0668339	-0.0821561	0	
C	-0.8010580	0.6067733	0.4469452	0	
C	0.3567616	-0.2701124	-0.0078417	0	
O	1.5696014	0.3283415	0.5470982	0	
C	2.7508406	-0.2538955	0.2872757	0	
O	2.8921613	-1.2447768	-0.3757808	0	
H	-2.3246620	-0.9392791	0.2803783	0	
H	-2.9623387	0.6947553	0.2453749	0	
H	-2.1496651	0.0439619	-1.1667080	0	
H	-0.8065544	0.6378083	1.5292035	0	
H	-0.6322115	1.6148330	0.0897313	0	
H	0.2639016	-1.2820697	0.3594807	0	
H	0.4402298	-0.3007508	-1.0847066	0	
H	3.5456044	0.2975671	0.7595444	0	
12
Properties=species:S:1:pos:R:3:molID:I:1:R:3 Nmols=1 Comp=VC(3) HF_energy=-8240.1278658 pbc="F F F"
O	2.3206615	-1.2701301	0.3093451	0	
C	1.2691725	-0.7305521	0.5564596	0	
C	0.3419974	-0.1354435	-0.4593074	0	
C	-1.1340088	-0.5762268	-0.2111495	0	
O	-1.4459152	0.7292763	0.3951204	0	
C	-0.1468371	1.2810633	-0.0258012	0	
H	0.9053486	-0.6346457	1.5783356	0	
H	0.7312009	-0.2429870	-1.4574781	0	
H	-1.6942836	-0.7412445	-1.1169290	0	
H	-1.2784594	-1.3891062	0.4825424	0	
H	0.3833887	1.7376295	0.7947409	0	
H	-0.2522653	1.9723668	-0.8458889	0	
11
Properties=species:S:1:pos:R:3:molID:I:1:R:3 Nmols=1 Comp=VC(3) HF_energy=-8674.8351398 pbc="F F F"
O	2.0793563	-0.8113660	-0.7368238	0	
C	1.7706643	-0.1985078	0.2589707	0	
C	0.3611618	0.2431636	0.5554111	0	
N	-0.4979612	-0.1911021	-0.5250173	0	
C	-1.8201020	0.0684312	-0.4990204	0	
O	-2.3748927	0.6680690	0.4015908	0	
H	2.5016198	0.0750347	1.0104049	0	
H	0.0457599	-0.1787458	1.5048542	0	
H	0.3415742	1.3231156	0.6674953	0	
H	-0.0600522	-0.6866139	-1.2728720	0	
H	-2.3471384	-0.3114785	-1.3649933	0	
12
Properties=species:S:1:pos:R:3:molID:I:1:R:3 Nmols=1 Comp=VC(3) HF_energy=-8137.9775059 pbc="F F F"
C	-0.9632414	0.4371144	0.8207438	0	
C	-0.3526161	0.3602133	-0.5624165	0	
N	-0.7992984	0.8929128	-1.6070111	0	
N	0.8251880	-0.3789461	-0.6810975	0	
C	1.5103514	-1.0505283	0.2874675	0	
O	2.5313377	-1.6700118	0.0924158	0	
H	-1.8642636	1.0329151	0.7852841	0	
H	-0.2765707	0.8970937	1.5217111	0	
H	-1.2205380	-0.5504716	1.1853855	0	
H	-1.6508239	1.4218288	-1.4972038	0	
H	1.2007794	-0.4076770	-1.6102400	0	
H	1.0597055	-0.9844434	1.2649711	0	
12
Properties=species:S:1:pos:R:3:molID:I:1:R:3 Nmols=1 Comp=VC(3) HF_energy=-8138.2865085 pbc="F F F"
C	-1.9642017	0.5287047	-0.0450458	0	
C	-0.4695027	0.7437967	-0.0208814	0	
O	0.0628456	1.8355945	-0.0290839	0	
N	0.2608157	-0.4173237	0.0117656	0	
C	1.6501032	-0.4289125	0.0375583	0	
N	2.2764581	-1.5136587	0.0670532	0	
H	-2.4548864	1.4887226	-0.0690455	0	
H	-2.2448742	-0.0447550	-0.9213176	0	
H	-2.2773828	-0.0174847	0.8375933	0	
H	-0.1863169	-1.3104462	0.0182549	0	
H	2.0656807	0.5611146	0.0289457	0	
H	3.2812513	-1.4253522	0.0841932	0	
13
Properties=species:S:1:pos:R:3:molID:I:1:R:3 Nmols=1 Comp=VC(3) HF_energy=-8706.0582175 pbc="F F F"
O	-1.3304804	-0.4743143	1.4624703	0	
C	-1.2551198	-0.6399495	0.0456542	0	
C	-0.5094118	0.5151075	-0.6507992	0	
N	0.9543533	0.3396033	-0.7174161	0	
C	1.7309154	0.1718831	0.3626117	0	
O	1.3309164	0.0653492	1.5137314	0	
H	-0.4332566	-0.3265152	1.8082085	0	
H	-2.2758571	-0.6464798	-0.3085326	0	
H	-0.7910776	-1.5780857	-0.2420920	0	
H	-0.7492633	1.4279913	-0.1206452	0	
H	-0.8497187	0.6068248	-1.6724398	0	
H	1.3911534	0.4068328	-1.6109690	0	
H	2.7868669	0.1317624	0.1302178	0	
12
Properties=species:S:1:pos:R:3:molID:I:1:R:3 Nmols=1 Comp=VC(3) HF_energy=-6680.9277095 pbc="F F F"
C	1.9677395	0.0964881	-0.0001385	0	
N	0.6124065	0.6430983	-0.0007801	0	
C	-0.4767334	-0.1619816	-0.0020414	0	
O	-0.4025200	-1.3795951	-0.0025910	0	
C	-1.8114817	0.5614783	-0.0003192	0	
H	1.8794581	-0.9779270	0.0030448	0	
H	2.5128805	0.4138249	0.8809386	0	
H	2.5118959	0.4084588	-0.8837679	0	
H	0.4984610	1.6314548	-0.0004996	0	
H	-2.3620246	0.2689233	0.8851785	0	
H	-2.3825101	0.2345740	-0.8601065	0	
H	-1.7134419	1.6370719	-0.0222376	0	
14
Properties=species:S:1:pos:R:3:molID:I:1:R:3 Nmols=1 Comp=VC(3) HF_energy=-8273.2666777 pbc="F F F"
C	-0.1591713	1.4025642	-0.0986081	0	
C	-0.2406981	-0.1114002	-0.2806020	0	
C	-1.5494178	-0.7057987	0.2207077	0	
O	0.7992797	-0.7524479	0.5403404	0	
C	2.0731609	-0.7360575	0.1215304	0	
O	2.4602240	-0.2166363	-0.8909964	0	
H	-0.9574231	1.8838645	-0.6510484	0	
H	-0.2593134	1.6485866	0.9513807	0	
H	0.7888526	1.7718955	-0.4646280	0	
H	-0.0544454	-0.3734466	-1.3111845	0	
H	-1.5393585	-1.7820224	0.1081385	0	
H	-2.3835178	-0.2995481	-0.3387696	0	
H	-1.6769805	-0.4697658	1.2693002	0	
H	2.6988086	-1.2597873	0.8244392	0	
11
Properties=species:S:1:pos:R:3:molID:I:1:R:3 Nmols=1 Comp=VC(3) HF_energy=-8674.9783567 pbc="F F F"
C	-1.0244344	1.3910045	-0.0221100	0	
N	0.1114402	0.4757012	-0.1015750	0	
C	-0.0045055	-0.8334741	0.1388864	0	
O	-1.0164306	-1.4362675	0.4444868	0	
C	1.3078557	-1.5800819	-0.0042201	0	
O	2.3396032	-1.0318981	-0.3045179	0	
H	-1.8939870	0.8117488	0.2468596	0	
H	-0.8529554	2.1494048	0.7314653	0	
H	-1.1960998	1.8714091	-0.9771695	0	
H	1.0167892	0.8206082	-0.3426555	0	
H	1.2127343	-2.6381550	0.1905499	0	
8
Properties=species:S:1:pos:R:3:molID:I:1:R:3 Nmols=1 Comp=VC(3) HF_energy=-6161.9563816 pbc="F F F"
C	-1.0463387	-0.1421874	-0.0312812	0	
O	0.2848197	-0.7291603	-0.0653061	0	
C	1.3403622	0.0963067	0.0318178	0	
O	1.2640099	1.2885705	0.1450584	0	
H	-1.1720412	0.5471178	-0.8524050	0	
H	-1.2001160	0.3821250	0.8996411	0	
H	-1.7245757	-0.9722736	-0.1203637	0	
H	2.2538699	-0.4704988	-0.0071613	0	
9
Properties=species:S:1:pos:R:3:molID:I:1:R:3 Nmols=1 Comp=VC(3) HF_energy=-7082.3238918 pbc="F F F"
N	-1.0274738	0.8056676	1.6741695	0	
C	-0.6447418	0.4727274	0.5305937	0	
N	0.4749206	-0.3215415	0.3483585	0	
C	0.9437884	-0.7194312	-0.8702932	0	
O	1.9174795	-1.4112557	-1.0464133	0	
H	-1.8522150	1.3847260	1.7050367	0	
H	-1.1154408	0.7492008	-0.3997743	0	
H	0.9628818	-0.6161695	1.1722777	0	
H	0.3407910	-0.3439139	-1.6882258	0	
9
Properties=species:S:1:pos:R:3:molID:I:1:R:3 Nmols=1 Comp=VC(3) HF_energy=-5625.1235116 pbc="F F F"
C	-1.0711019	0.0581717	0.3213991	0	
N	0.1192048	0.2300242	-0.5118592	0	
C	1.3329006	-0.2128377	-0.1169154	0	
O	1.5648416	-0.7807323	0.9324111	0	
H	-0.7624400	-0.4496136	1.2213382	0	
H	-1.5024975	1.0169635	0.5819416	0	
H	-1.8170967	-0.5394111	-0.1881948	0	
H	0.0286598	0.6853582	-1.3932679	0	
H	2.1075293	-0.0079229	-0.8468529	0	
5
Properties=species:S:1:pos:R:3:molID:I:1:R:3 Nmols=1 Comp=VC(3) HF_energy=-5562.0866431 pbc="F F F"
O	-1.2823709	-0.9692201	0.0659291	0	
C	-0.5861807	0.0129600	0.0548924	0	
C	0.8585675	-0.0256712	-0.0806251	0	
N	1.9918672	-0.0291959	-0.1857279	0	
H	-0.9818829	1.0111272	0.1455315	0	
11
Properties=species:S:1:pos:R:3:molID:I:1:R:3 Nmols=1 Comp=VC(3) HF_energy=-8675.3562011 pbc="F F F"
C	1.2785755	-0.1717636	0.2261560	0	
N	-0.1569338	0.0282854	-0.0256401	0	
C	-0.6941968	1.2937286	-0.0285533	0	
O	-0.0686066	2.3066135	0.1656205	0	
C	-0.9470782	-1.0714847	-0.2598815	0	
O	-0.5349108	-2.2045676	-0.2731676	0	
H	1.7417196	-0.6286136	-0.6364259	0	
H	1.4117324	-0.8203109	1.0794759	0	
H	1.7133470	0.7945566	0.4160214	0	
H	-1.7578085	1.2963358	-0.2287270	0	
H	-1.9858198	-0.8227695	-0.4348883	0	
12
Properties=species:S:1:pos:R:3:molID:I:1:R:3 Nmols=1 Comp=VC(3) HF_energy=-7238.9464900 pbc="F F F"
O	-2.5076271	-0.1641964	-0.6843477	0	
C	-2.0627581	-0.2042751	0.4394898	0	
C	-0.5951906	-0.0956372	0.7610686	0	
C	0.2477386	0.0698585	-0.5179163	0	
C	1.6765370	0.1752021	-0.2061702	0	
C	2.8323848	0.2607743	0.0577858	0	
H	-2.7151090	-0.3236193	1.2999247	0	
H	-0.2882401	-0.9844419	1.3042786	0	
H	-0.4433902	0.7492221	1.4262581	0	
H	0.0773003	-0.7757664	-1.1732118	0	
H	-0.0767998	0.9554128	-1.0508359	0	
H	3.8551643	0.3374765	0.2845556	0	
12
Properties=species:S:1:pos:R:3:molID:I:1:R:3 Nmols=1 Comp=VC(3) HF_energy=-8240.7120097 pbc="F F F"
O	2.3350936	0.1044393	1.2726370	0	
C	2.2011961	0.1085333	0.0816468	0	
O	1.0466611	-0.1482247	-0.5657405	0	
C	-0.1368072	-0.4103953	0.1998434	0	
C	-1.3755438	-0.4935563	-0.6249606	0	
C	-1.1311138	0.7070247	0.2786271	0	
H	2.9790338	0.3045461	-0.6354599	0	
H	0.0216975	-1.0527711	1.0380357	0	
H	-1.2459330	-0.3408386	-1.6763893	0	
H	-2.1261210	-1.2037812	-0.3427579	0	
H	-0.8576362	1.6248117	-0.2000509	0	
H	-1.7105272	0.8002120	1.1745790	0	
16
Properties=species:S:1:pos:R:3:molID:I:1:R:3 Nmols=1 Comp=VC(3) HF_energy=-9761.6649256 pbc="F F F"
C	-1.1677681	1.4426230	-0.3014841	0	
C	-0.2601336	0.3555965	0.2882967	0	
C	-0.9208113	-1.0336528	0.1673107	0	
O	-0.4556049	-1.9660293	1.1430330	0	
N	1.0334415	0.4343810	-0.4291256	0	
C	2.0852184	-0.3633706	-0.1970478	0	
O	2.1043754	-1.3142214	0.5728637	0	
H	-0.6962242	2.4169982	-0.2372220	0	
H	-2.1022071	1.4852562	0.2427144	0	
H	-1.3845451	1.2268321	-1.3426787	0	
H	-0.0908205	0.5392107	1.3415465	0	
H	-1.9802726	-0.9230676	0.3481978	0	
H	-0.7854594	-1.3851582	-0.8514431	0	
H	0.5165190	-1.9988042	1.1148906	0	
H	1.1428286	1.1757111	-1.0878512	0	
H	2.9614539	-0.0923046	-0.7720109	0	
16
Properties=species:S:1:pos:R:3:molID:I:1:R:3 Nmols=1 Comp=VC(3) HF_energy=-9761.7408862 pbc="F F F"
C	-2.0317097	-0.8184135	-0.3350156	0	
C	-0.6444873	-0.2097065	-0.5324991	0	
O	-0.8796420	1.1230885	-1.0016370	0	
C	0.1330358	-0.2074518	0.8007730	0	
N	1.5995447	-0.1233284	0.6564231	0	
C	2.2308686	0.9086375	0.0788644	0	
O	1.6834974	1.8579104	-0.4655662	0	
H	-1.9723162	-1.8643195	-0.0569477	0	
H	-2.5889233	-0.7246624	-1.2569213	0	
H	-2.5622388	-0.2686017	0.4334509	0	
H	-0.0825980	-0.7964986	-1.2525311	0	
H	-0.0503235	1.6316216	-0.9778621	0	
H	-0.2282907	0.6305019	1.3837454	0	
H	-0.0644275	-1.1209855	1.3425940	0	
H	2.1487372	-0.8538770	1.0544987	0	
H	3.3092933	0.8360949	0.1286306	0	
15
Properties=species:S:1:pos:R:3:molID:I:1:R:3 Nmols=1 Comp=VC(3) HF_energy=-9296.4045407 pbc="F F F"
C	-0.2941755	1.4896401	-0.2666022	0	
C	-0.1522637	0.0644585	0.2036933	0	
C	-0.9075326	-1.0508214	-0.4527980	0	
C	-1.2362706	-0.6191229	0.9721817	0	
O	1.1597474	-0.2755984	0.6877170	0	
C	2.2087191	-0.3193703	-0.1582461	0	
O	2.1712812	-0.0648538	-1.3294552	0	
H	0.3288273	1.6563811	-1.1341644	0	
H	0.0050096	2.1697647	0.5226002	0	
H	-1.3243522	1.6957573	-0.5279246	0	
H	-1.5887865	-0.7926578	-1.2381354	0	
H	-0.3991967	-1.9858606	-0.5710064	0	
H	-2.1445502	-0.0790153	1.1497358	0	
H	-0.9162452	-1.2710034	1.7586655	0	
H	3.0898184	-0.6176976	0.3837388	0	
14
Properties=species:S:1:pos:R:3:molID:I:1:R:3 Nmols=1 Comp=VC(3) HF_energy=-8728.1060146 pbc="F F F"
O	-2.2963094	-0.3304653	-0.9065958	0	
C	-2.0249935	0.5486272	-0.1099906	0	
N	-1.0807980	0.4349819	0.8483975	0	
C	-0.2842137	-0.7848434	0.9541589	0	
C	0.7875561	-0.8641198	-0.1547565	0	
C	1.7362061	0.2512029	-0.0626513	0	
C	2.5056346	1.1546178	0.0146707	0	
H	-2.5298889	1.5067635	-0.1038815	0	
H	-0.8431984	1.2204351	1.4130280	0	
H	-0.9469017	-1.6330798	0.8599068	0	
H	0.1833952	-0.8066235	1.9272944	0	
H	1.3244311	-1.8031763	-0.0701110	0	
H	0.2816131	-0.8452243	-1.1117780	0	
H	3.1874674	1.9509140	0.0814270	0	
16
Properties=species:S:1:pos:R:3:molID:I:1:R:3 Nmols=1 Comp=VC(3) HF_energy=-8758.4000085 pbc="F F F"
C	-1.3783056	-0.1070355	1.2554287	0	
C	-1.2565227	0.0472237	-0.2398864	0	
N	-0.8670612	1.3992960	-0.7423662	0	
C	0.0497721	0.2387827	-0.9352395	0	
C	1.3550132	0.3133057	-0.1965264	0	
C	1.9423040	-1.0520295	0.0435603	0	
O	1.4477985	-2.0849275	-0.3459505	0	
H	-0.7356418	0.5982915	1.7622340	0	
H	-2.3967845	0.0887690	1.5728431	0	
H	-1.1140899	-1.1156975	1.5537905	0	
H	-1.9948115	-0.4838792	-0.8121779	0	
H	-1.3493726	1.6751093	-1.5834911	0	
H	0.1156463	-0.1833337	-1.9199669	0	
H	1.2302794	0.8247427	0.7497736	0	
H	2.0773262	0.8965187	-0.7650502	0	
H	2.8744401	-1.0551263	0.6030349	0	
10
Properties=species:S:1:pos:R:3:molID:I:1:R:3 Nmols=1 Comp=VC(3) HF_energy=-9563.5151732 pbc="F F F"
O	2.5638316	0.4898142	-0.0248073	0	
C	1.7228411	-0.3300481	0.2275458	0	
N	0.3657504	-0.0902134	0.0557473	0	
C	-0.2790688	1.0238396	-0.3966360	0	
N	-1.5601053	0.8209854	-0.3996358	0	
C	-1.7082245	-0.4806582	0.0738107	0	
N	-0.5909823	-1.0730733	0.3616308	0	
H	1.9044534	-1.3201344	0.6058328	0	
H	0.2367972	1.9045516	-0.6916044	0	
H	-2.6552927	-0.9450736	0.1881261	0	
13
Properties=species:S:1:pos:R:3:molID:I:1:R:3 Nmols=1 Comp=VC(3) HF_energy=-10163.7052677 pbc="F F F"
C	-1.8731443	0.0180135	-1.0746820	0	
O	-1.1639811	-0.0339935	0.1811394	0	
C	0.1970863	0.0048405	0.1940687	0	
N	0.9938516	0.0826377	-0.7650441	0	
N	0.6208239	-0.0577390	1.5019289	0	
C	1.9462116	-0.0405479	1.8674964	0	
O	2.3216761	-0.0952314	3.0149445	0	
H	-2.9165380	-0.0263517	-0.8151323	0	
H	-1.6119345	-0.8257069	-1.6992021	0	
H	-1.6618340	0.9409106	-1.5978768	0	
H	0.6220938	0.1248583	-1.6966180	0	
H	-0.0778766	-0.1184132	2.2133843	0	
H	2.6035451	0.0267132	1.0188522	0	
11
Properties=species:S:1:pos:R:3:molID:I:1:R:3 Nmols=1 Comp=VC(3) HF_energy=-9130.9536884 pbc="F F F"
O	-2.2233105	-1.4135588	0.0809655	0	
C	-1.8272009	-0.2673488	0.0046977	0	
C	-0.4290729	0.0935685	-0.0097070	0	
C	0.2149878	1.2893019	-0.0877052	0	
N	1.5777558	1.0859233	-0.0629467	0	
C	1.7521781	-0.2114279	0.0281515	0	
N	0.5656541	-0.8618281	0.0636965	0	
H	-2.5065872	0.5727614	-0.0586572	0	
H	-0.2088347	2.2623639	-0.1582686	0	
H	2.6912352	-0.7077854	0.0697443	0	
H	0.3932052	-1.8419602	0.1300293	0	
13
Properties=species:S:1:pos:R:3:molID:I:1:R:3 Nmols=1 Comp=VC(3) HF_energy=-10266.0337915 pbc="F F F"
O	-0.8553114	1.2783518	0.5385560	0	
C	-0.9865402	-0.1102211	0.3639380	0	
C	-1.3190102	-0.5695127	-1.0242666	0	
C	0.0430217	-0.8403838	-0.4526997	0	
O	1.1140010	-0.1011261	-1.0495003	0	
C	1.9454130	0.6494075	-0.3087920	0	
O	1.8460832	0.8550459	0.8724294	0	
H	-0.0974328	1.4550239	1.1158464	0	
H	-1.4034386	-0.6542924	1.1888329	0	
H	-1.9937853	-1.3882184	-1.1675188	0	
H	-1.3467842	0.2149468	-1.7519375	0	
H	0.3295013	-1.8331147	-0.1771307	0	
H	2.7242825	1.0440832	-0.9362960	0	
12
Properties=species:S:1:pos:R:3:molID:I:1:R:3 Nmols=1 Comp=VC(3) HF_energy=-8696.9953960 pbc="F F F"
O	-1.9882467	-1.0746310	1.5922071	0	
C	-0.9892059	-0.8986176	0.9369759	0	
C	-0.5490230	0.4313511	0.4585891	0	
C	0.9353146	0.7153642	0.4360977	0	
C	0.1996820	0.5303078	-0.8693462	0	
C	0.4436053	-0.6556210	-1.6319475	0	
N	0.6449119	-1.5959696	-2.2435187	0	
H	-0.3327883	-1.7193986	0.6664266	0	
H	-1.2185668	1.2330791	0.6903574	0	
H	1.5950288	-0.0729994	0.7396438	0	
H	1.2579008	1.7055415	0.6847003	0	
H	0.0013874	1.4015934	-1.4601755	0	
17
Properties=species:S:1:pos:R:3:molID:I:1:R:3 Nmols=1 Comp=VC(3) HF_energy=-8325.8297647 pbc="F F F"
O	2.3985241	-0.4633015	2.0270867	0	
C	2.5583672	-0.6477857	0.8425595	0	
C	1.5380377	-0.3089600	-0.2129084	0	
C	0.2755485	0.3294444	0.3823828	0	
C	-0.7542231	0.6371207	-0.6812959	0	
C	-1.6832062	-0.4654034	-1.1388740	0	
C	-2.2141016	0.6808232	-0.2990975	0	
H	3.4792135	-1.0861337	0.4650455	0	
H	2.0035137	0.3588908	-0.9344415	0	
H	1.2854323	-1.2193743	-0.7511996	0	
H	0.5525557	1.2361173	0.9081544	0	
H	-0.1441747	-0.3436652	1.1210328	0	
H	-0.4377350	1.3362194	-1.4331041	0	
H	-1.9644541	-0.4993600	-2.1728356	0	
H	-1.5859248	-1.4235723	-0.6659345	0	
H	-2.8425701	1.4032541	-0.7809776	0	
H	-2.4648129	0.4756964	0.7232180	0	
19
Properties=species:S:1:pos:R:3:molID:I:1:R:3 Nmols=1 Comp=VC(3) HF_energy=-8358.0684447 pbc="F F F"
C	-2.4742352	-0.6720095	0.3085369	0	
C	-1.0804433	-0.9466845	-0.2891488	0	
C	-0.0136467	0.0568636	0.2041624	0	
C	1.3945656	-0.3410129	-0.2934958	0	
C	2.5059801	0.5455239	0.3015578	0	
C	-0.3484417	1.4225391	-0.3396110	0	
O	-0.5861659	2.4126813	0.3110144	0	
H	-3.1990298	-1.3852645	-0.0669457	0	
H	-2.4439363	-0.7545824	1.3891804	0	
H	-2.8201078	0.3246898	0.0588725	0	
H	-0.7643319	-1.9484161	-0.0198605	0	
H	-1.1286276	-0.9082689	-1.3741708	0	
H	-0.0244358	0.1091314	1.2857473	0	
H	1.4163472	-0.2840026	-1.3785501	0	
H	1.5770465	-1.3757477	-0.0253076	0	
H	3.4769919	0.2481381	-0.0775667	0	
H	2.5208559	0.4568270	1.3820428	0	
H	2.3514757	1.5896181	0.0539258	0	
H	-0.3598707	1.4499768	-1.4303833	0	
18
Properties=species:S:1:pos:R:3:molID:I:1:R:3 Nmols=1 Comp=VC(3) HF_energy=-8791.8049531 pbc="F F F"
C	-1.7059500	-0.6193816	-1.0709633	0	
C	-1.2651362	0.3643458	0.0267075	0	
C	0.2643359	0.4752513	0.1433505	0	
C	0.6744296	1.5399178	1.1735304	0	
N	0.8414931	-0.8261586	0.5056032	0	
C	1.8732880	-1.3744477	-0.1738102	0	
O	2.4142611	-0.8807583	-1.1443177	0	
H	-1.3266488	-0.3045789	-2.0369496	0	
H	-1.3269367	-1.6126090	-0.8671983	0	
H	-2.7873032	-0.6706655	-1.1309130	0	
H	-1.6634744	1.3507864	-0.1865283	0	
H	-1.6713009	0.0564617	0.9868598	0	
H	0.6872166	0.7204893	-0.8190823	0	
H	0.2820274	2.5114536	0.8948022	0	
H	0.2880406	1.2836570	2.1549907	0	
H	1.7536830	1.6062504	1.2333632	0	
H	0.4840274	-1.2913516	1.3129515	0	
H	2.1839475	-2.3286520	0.2373336	0	
