13
Properties=species:S:1:pos:R:3:molID:I:1:R:3 Nmols=1 Comp=VC(3) HF_energy=-6242.6524936 pbc="F F F"
C	-1.7651938	0.1160657	0.2404010	0	
C	-0.3989426	-0.2689249	-0.3719743	0	
C	0.7714891	0.0299617	0.5581572	0	
C	2.3753791	0.0349500	-0.8295511	0	
O	1.9933279	0.3810478	-1.8742162	0	
H	-1.7872724	1.1747808	0.4745584	0	
H	-1.9437550	-0.4373610	1.1554968	0	
H	-2.5737619	-0.0968076	-0.4521928	0	
H	-0.4080986	-1.3264741	-0.6196803	0	
H	-0.2597575	0.2749739	-1.3011317	0	
H	0.7528522	1.0494129	0.9316960	0	
H	0.8374929	-0.6677276	1.3896654	0	
H	2.4062504	-0.2639074	0.2215817	0	
11
Properties=species:S:1:pos:R:3:molID:I:1:R:3 Nmols=1 Comp=VC(3) HF_energy=-7210.7067421 pbc="F F F"
O	-1.2723295	0.7485089	-0.9590488	0	
C	-0.6929323	0.2509290	0.2158639	0	
C	0.2221497	-0.8971609	0.0591623	0	
C	1.7519784	0.4583631	0.0240423	0	
O	2.8513431	0.7863185	-0.1613546	0	
H	-2.2325140	0.8298330	-0.8917688	0	
H	-1.0952413	-1.1333740	0.2205996	0	
H	-1.1025418	0.5080567	1.1718235	0	
H	0.3648516	-1.3070779	-0.9194880	0	
H	0.5526243	-1.4383116	0.9216226	0	
H	0.6663120	1.1953252	0.3156859	0	
10
Properties=species:S:1:pos:R:3:molID:I:1:R:3 Nmols=1 Comp=VC(3) HF_energy=-5187.1701277 pbc="F F F"
C	-1.0727887	0.2052527	0.0600033	0	
C	0.1063914	-0.7433173	-0.1259610	0	
C	1.7059187	0.6467427	-0.0204008	0	
O	1.3933847	1.5545560	0.6393912	0	
H	-0.8236818	0.9748535	0.7845044	0	
H	-1.9576244	-0.3146848	0.4167675	0	
H	-1.3295577	0.6951202	-0.8735251	0	
H	0.2657038	-1.3883598	0.7316435	0	
H	0.0355379	-1.3400106	-1.0311107	0	
H	1.6767262	-0.2901526	-0.5813124	0	
8
Properties=species:S:1:pos:R:3:molID:I:1:R:3 Nmols=1 Comp=VC(3) HF_energy=-6156.7751266 pbc="F F F"
O	-1.3689273	0.2592814	0.0357822	0	
C	-0.3627782	-0.7160736	-0.0026863	0	
C	1.2892272	0.6595137	-0.0187161	0	
O	0.7336492	1.6945588	0.0081396	0	
H	-0.9687534	1.1580219	0.0386797	0	
H	-0.3413961	-1.3319397	0.8866706	0	
H	-0.3817669	-1.3034447	-0.9111481	0	
H	1.4007455	-0.4199179	-0.0367116	0	
6
Properties=species:S:1:pos:R:3:molID:I:1:R:3 Nmols=1 Comp=VC(3) HF_energy=-5123.8333367 pbc="F F F"
O	-2.0541383	0.8182760	-0.9360119	0	
C	-1.6883574	0.0505810	-0.1910428	0	
C	0.4839318	-0.1726379	0.1993116	0	
C	1.6874709	-0.0721957	0.2114191	0	
H	-1.1652011	-0.6367352	0.4921972	0	
H	2.7362940	0.0127118	0.2241268	0	
12
Properties=species:S:1:pos:R:3:molID:I:1:R:3 Nmols=1 Comp=VC(3) HF_energy=-9239.5023002 pbc="F F F"
O	-1.0438888	0.8241688	1.5908365	0	
C	-1.2857152	-0.2295957	0.6454515	0	
C	0.0537858	-0.8479303	0.2550216	0	
O	0.9029467	0.2384856	-0.1699081	0	
C	1.6624038	0.8375070	-1.6976597	0	
O	1.1169847	0.9797707	-2.6864609	0	
H	-0.2600373	1.2942707	1.2684631	0	
H	-1.7763134	0.1487757	-0.2447857	0	
H	-1.9282035	-0.9560424	1.1199006	0	
H	-0.0712755	-1.5867203	-0.5289819	0	
H	0.4996942	-1.3227883	1.1198895	0	
H	2.1155984	0.5622384	-0.6513266	0	
16
Properties=species:S:1:pos:R:3:molID:I:1:R:3 Nmols=1 Comp=VC(3) HF_energy=-7298.2023209 pbc="F F F"
C	-1.2345041	-0.8072223	-0.3232023	0	
C	-0.1734464	0.3023284	-0.1799388	0	
C	-0.8010025	1.5492611	0.4818146	0	
C	1.0307168	-0.2000113	0.6084906	0	
C	2.0538404	-1.2970399	-0.8857051	0	
O	1.8360226	-0.8317905	-1.9320253	0	
H	-2.0879239	-0.4532070	-0.8913425	0	
H	-1.5832447	-1.1206077	0.6559376	0	
H	-0.8302761	-1.6738736	-0.8362864	0	
H	0.1665640	0.5793740	-1.1735909	0	
H	-0.0699379	2.3451325	0.5727214	0	
H	-1.6348447	1.9184573	-0.1083448	0	
H	-1.1648996	1.3052227	1.4744206	0	
H	1.7320079	0.5922764	0.8533110	0	
H	0.7423056	-0.7322620	1.5125183	0	
H	2.0293426	-1.5009184	0.1880920	0	
14
Properties=species:S:1:pos:R:3:molID:I:1:R:3 Nmols=1 Comp=VC(3) HF_energy=-8269.7248950 pbc="F F F"
C	-2.1322054	0.1272754	-0.0157157	0	
C	-0.6912679	0.3130910	0.4921276	0	
C	0.3371923	-0.0571124	-0.5802554	0	
O	1.6665994	0.1500988	-0.0771853	0	
C	3.0230494	-0.4201166	0.9053818	0	
O	2.9532331	-1.0547339	1.8511890	0	
H	-2.3099933	-0.9044122	-0.3016988	0	
H	-2.8510387	0.3906853	0.7514255	0	
H	-2.3193524	0.7551501	-0.8808523	0	
H	-0.5182408	-0.3062701	1.3648260	0	
H	-0.5216202	1.3428491	0.7828967	0	
H	0.1988788	-1.0917852	-0.8816003	0	
H	0.1950173	0.5677211	-1.4560423	0	
H	2.9697383	0.1875597	-0.1266472	0	
12
Properties=species:S:1:pos:R:3:molID:I:1:R:3 Nmols=1 Comp=VC(3) HF_energy=-8233.6940909 pbc="F F F"
O	2.5607855	-1.0205136	0.7521030	0	
C	1.4493699	-0.7190161	0.6429445	0	
C	0.1822804	-0.0983117	-0.7041083	0	
C	-0.9135523	-0.6669793	0.2227445	0	
O	-1.1873259	0.6652221	0.7615766	0	
C	-0.1706302	1.2944898	-0.1208032	0	
H	0.1886908	-1.0747889	1.1429214	0	
H	0.5945868	-0.3808510	-1.6514431	0	
H	-1.1554008	-0.3098277	-1.1037119	0	
H	-1.6536150	-1.4421441	0.2268274	0	
H	0.6139340	1.7602050	0.4466478	0	
H	-0.6308831	1.9956456	-0.7999888	0	
11
Properties=species:S:1:pos:R:3:molID:I:1:R:3 Nmols=1 Comp=VC(3) HF_energy=-8670.7445554 pbc="F F F"
O	1.7549494	-1.3550859	-0.3443642	0	
C	1.6238218	-0.3896557	0.3699713	0	
C	0.4697118	0.5843761	0.2562867	0	
N	-0.5219648	0.1146503	-0.7107579	0	
C	-2.2042346	-0.2022031	-0.2421148	0	
O	-2.4749597	-0.7991510	0.7189453	0	
H	2.3505614	-0.1477500	1.1391474	0	
H	0.0191840	0.6878776	1.2403077	0	
H	0.8809979	1.5542422	-0.0165118	0	
H	-0.1318303	-0.5936422	-1.3215195	0	
H	-1.7662469	0.5463318	-1.0893901	0	
12
Properties=species:S:1:pos:R:3:molID:I:1:R:3 Nmols=1 Comp=VC(3) HF_energy=-8136.3172491 pbc="F F F"
C	-1.5537865	0.1232725	0.6220781	0	
C	-0.1843638	0.1804253	0.0054896	0	
N	0.3188463	1.2177034	-0.5840561	0	
N	0.6165183	-0.8836749	0.0368013	0	
C	1.9811629	-0.5783638	-0.6663982	0	
O	2.7798178	-1.4675115	-0.6966768	0	
H	-2.0713573	1.0651350	0.5116706	0	
H	-1.4641016	-0.1136866	1.6757208	0	
H	-2.1308893	-0.6596103	0.1441488	0	
H	-0.1737884	2.0796436	-0.6772220	0	
H	0.3532604	-1.7495846	0.4603573	0	
H	1.4222212	0.7725320	-0.9053934	0	
12
Properties=species:S:1:pos:R:3:molID:I:1:R:3 Nmols=1 Comp=VC(3) HF_energy=-8132.5446775 pbc="F F F"
C	-1.2919503	-0.5494615	-0.3223182	0	
C	-0.3115298	1.3751276	0.0325600	0	
O	-0.5821744	2.4537946	-0.2493791	0	
N	1.3770561	0.8485375	0.8704975	0	
C	1.5132786	-0.2387296	0.1251532	0	
N	0.6421641	-1.2113905	0.2265165	0	
H	-1.8441801	0.1330453	-0.9470827	0	
H	-1.1850919	-1.4882146	-0.8289971	0	
H	-1.7087759	-0.6504439	0.6577101	0	
H	0.8634448	0.6266270	1.7185016	0	
H	2.2108813	-0.1701459	-0.6924623	0	
H	0.7934375	-1.9700857	-0.4258096	0	
13
Properties=species:S:1:pos:R:3:molID:I:1:R:3 Nmols=1 Comp=VC(3) HF_energy=-8701.9834132 pbc="F F F"
O	-1.1857112	-0.5804130	1.3748557	0	
C	-1.2986847	-0.5514892	-0.0518932	0	
C	-0.4516493	0.5584572	-0.6859635	0	
N	0.9997227	0.2561772	-0.6558273	0	
C	1.9648466	0.3662908	0.7538088	0	
O	1.6428964	-0.1548054	1.7577153	0	
H	-0.2640668	-0.6770120	1.6564026	0	
H	-2.3416017	-0.3639173	-0.2609408	0	
H	-1.0315246	-1.5043517	-0.5015528	0	
H	-0.6160072	1.4718168	-0.1291114	0	
H	-0.7586764	0.7219721	-1.7124639	0	
H	1.2617810	-0.5312630	-1.2375081	0	
H	2.0786750	0.9885374	-0.3075313	0	
12
Properties=species:S:1:pos:R:3:molID:I:1:R:3 Nmols=1 Comp=VC(3) HF_energy=-6675.5425432 pbc="F F F"
C	-1.5373905	-0.0594903	-0.2556003	0	
N	-0.3207135	-0.2153241	0.5775965	0	
C	0.7778392	-1.1583466	0.1762334	0	
O	0.6277282	-1.7249172	-0.8844261	0	
C	1.4563087	0.7209536	0.6722531	0	
H	-1.2475024	-0.3110538	-1.2639954	0	
H	-1.9070033	0.9559092	-0.2011549	0	
H	-2.3184408	-0.7411621	0.0607779	0	
H	-0.4720655	-0.2021198	1.5724052	0	
H	0.9278165	1.6552148	0.6219020	0	
H	2.1616387	0.5971427	-0.1262433	0	
H	1.8517846	0.4832037	1.6371609	0	
14
Properties=species:S:1:pos:R:3:molID:I:1:R:3 Nmols=1 Comp=VC(3) HF_energy=-8269.8820155 pbc="F F F"
C	-0.4645702	1.6207877	0.2246961	0	
C	-0.1837164	0.2530275	-0.4044464	0	
C	-1.2741733	-0.7652705	-0.0600781	0	
O	1.0727790	-0.2270857	0.1124239	0	
C	2.4199682	-1.3737700	0.1430053	0	
O	2.3972265	-2.4605169	-0.2032989	0	
H	-1.4017311	2.0291322	-0.1366400	0	
H	-0.5157861	1.5148272	1.3015659	0	
H	0.3344811	2.3120352	-0.0149290	0	
H	-0.1164539	0.3595273	-1.4826169	0	
H	-1.0358041	-1.7288903	-0.4940063	0	
H	-2.2392196	-0.4419231	-0.4337633	0	
H	-1.3300812	-0.8785173	1.0158820	0	
H	2.3370711	-0.2133434	0.4321856	0	
11
Properties=species:S:1:pos:R:3:molID:I:1:R:3 Nmols=1 Comp=VC(3) HF_energy=-8670.5646733 pbc="F F F"
C	-1.0272633	1.3692265	-0.0177440	0	
N	0.0457930	0.3698633	-0.0715262	0	
C	-0.1730908	-0.9223991	0.1926116	0	
O	-1.2246696	-1.4521963	0.5009994	0	
C	1.8546217	-1.7377931	-0.0926769	0	
O	2.5224317	-0.8313936	-0.3857700	0	
H	-1.9306617	0.8440269	0.2533095	0	
H	-0.8137399	2.1268602	0.7262472	0	
H	-1.1617127	1.8445879	-0.9816126	0	
H	0.9722989	0.6544279	-0.3125776	0	
H	0.9359930	-2.2651906	0.1887496	0	
8
Properties=species:S:1:pos:R:3:molID:I:1:R:3 Nmols=1 Comp=VC(3) HF_energy=-6158.5749112 pbc="F F F"
C	-1.1441761	-0.2642806	-0.0304212	0	
O	0.2876099	-0.3471324	-0.0128260	0	
C	1.8560966	0.4518976	0.0554137	0	
O	2.0938945	1.4339965	0.5861252	0	
H	-1.5043329	0.2212787	-0.9320294	0	
H	-1.4915422	0.3006271	0.8268580	0	
H	-1.5701572	-1.2600788	0.0196003	0	
H	1.4726174	-0.5363182	-0.5127105	0	
9
Properties=species:S:1:pos:R:3:molID:I:1:R:3 Nmols=1 Comp=VC(3) HF_energy=-7080.4645625 pbc="F F F"
N	-0.7542701	1.0840926	0.1610418	0	
C	-0.7163459	-0.0671974	0.7500031	0	
N	0.2843467	-0.8642689	0.4054979	0	
C	1.1951606	-0.1485583	-0.6783686	0	
O	2.1358310	-0.7651164	-1.0729999	0	
H	-1.4616778	1.7626355	0.3408128	0	
H	-1.4420578	-0.3814614	1.4791209	0	
H	0.4177985	-1.7743926	0.7938339	0	
H	0.2526148	0.9777869	-0.5570226	0	
9
Properties=species:S:1:pos:R:3:molID:I:1:R:3 Nmols=1 Comp=VC(3) HF_energy=-5621.0909617 pbc="F F F"
C	-1.0352884	0.2312242	0.2844402	0	
N	0.1976726	0.3000576	-0.5247972	0	
C	1.6591418	-0.4821355	0.0812644	0	
O	1.7561429	-1.6348576	0.2178219	0	
H	-0.7656935	0.2977209	1.3331655	0	
H	-1.6987011	1.0584334	0.0566985	0	
H	-1.5718942	-0.6994316	0.1336432	0	
H	0.0331742	0.2302877	-1.5206050	0	
H	1.4254355	0.6986908	-0.0616214	0	
5
Properties=species:S:1:pos:R:3:molID:I:1:R:3 Nmols=1 Comp=VC(3) HF_energy=-5558.7812520 pbc="F F F"
O	-1.4005205	-1.1476634	-0.7907807	0	
C	-1.0921451	-0.1320563	-0.4309370	0	
C	1.0182213	0.2474378	0.4387259	0	
N	2.0984328	0.2532378	0.8402024	0	
H	-0.6449584	0.7852341	-0.0438706	0	
11
Properties=species:S:1:pos:R:3:molID:I:1:R:3 Nmols=1 Comp=VC(3) HF_energy=-8671.4355655 pbc="F F F"
C	1.2656852	-0.2896385	0.0330516	0	
N	-0.1538579	-0.0005390	-0.2393250	0	
C	-0.7529162	1.8354119	0.0293808	0	
O	-0.9449859	2.2788769	1.0628194	0	
C	-1.0141794	-1.0525551	-0.1121224	0	
O	-0.7105084	-2.1954753	0.1729031	0	
H	1.6385033	-1.0476537	-0.6446779	0	
H	1.4093834	-0.6466595	1.0457197	0	
H	1.8445076	0.6174853	-0.1057140	0	
H	-0.5324984	1.2772959	-0.9404881	0	
H	-2.0491332	-0.7765389	-0.3015572	0	
12
Properties=species:S:1:pos:R:3:molID:I:1:R:3 Nmols=1 Comp=VC(3) HF_energy=-7234.5293410 pbc="F F F"
O	-2.4907781	0.4890097	-0.9125594	0	
C	-2.5285090	-0.0184609	0.1329010	0	
C	-0.5504417	-0.2114372	0.9180649	0	
C	0.2458416	-0.1547451	-0.3910770	0	
C	1.6597905	0.1802669	-0.1662089	0	
C	2.8018041	0.4543551	0.0226116	0	
H	-2.2244503	-0.4728647	1.0802308	0	
H	-0.3326156	-1.1074322	1.4906637	0	
H	-0.3868586	0.6703485	1.5267653	0	
H	0.1908847	-1.1120002	-0.8999003	0	
H	-0.1941739	0.5860610	-1.0520694	0	
H	3.8095262	0.6968990	0.1914371	0	
12
Properties=species:S:1:pos:R:3:molID:I:1:R:3 Nmols=1 Comp=VC(3) HF_energy=-8237.4568196 pbc="F F F"
O	2.9741369	-1.6294888	-0.2746652	0	
C	2.7224164	-0.5298726	-0.1292259	0	
O	1.0914523	0.1962252	0.0872586	0	
C	-0.2196779	0.1189863	0.5794536	0	
C	-1.2655734	-0.5151713	-0.2963372	0	
C	-1.2644289	0.9894562	-0.0661435	0	
H	2.3574354	0.5817881	0.0838533	0	
H	-0.3069012	-0.0433520	1.6376866	0	
H	-0.9308206	-0.8562434	-1.2546682	0	
H	-2.0371311	-1.0994646	0.1642539	0	
H	-0.9275450	1.6008265	-0.8780993	0	
H	-2.0351730	1.4104404	0.5485535	0	
16
Properties=species:S:1:pos:R:3:molID:I:1:R:3 Nmols=1 Comp=VC(3) HF_energy=-9757.6162187 pbc="F F F"
C	-1.1100754	1.5215825	-0.2998394	0	
C	-0.2480684	0.3848295	0.2648036	0	
C	-0.9869223	-0.9576073	0.2007069	0	
O	-0.3473680	-1.9805679	0.9700996	0	
N	1.0378539	0.3221546	-0.4770230	0	
C	2.4660803	-0.4456508	0.0948517	0	
O	2.4656518	-1.5710217	0.4324046	0	
H	-0.5542412	2.4501201	-0.2877415	0	
H	-2.0135738	1.6474585	0.2859767	0	
H	-1.3946599	1.3057576	-1.3251582	0	
H	-0.0090180	0.5791017	1.3028073	0	
H	-1.9721017	-0.8439389	0.6284821	0	
H	-1.1023775	-1.2404750	-0.8432631	0	
H	0.5702203	-2.1182373	0.6941454	0	
H	0.9126045	0.2020205	-1.4765658	0	
H	2.2860054	0.7444837	-0.1646871	0	
16
Properties=species:S:1:pos:R:3:molID:I:1:R:3 Nmols=1 Comp=VC(3) HF_energy=-9757.6715664 pbc="F F F"
C	-2.0538256	-0.7685849	-0.2516711	0	
C	-0.6124673	-0.3368916	-0.5088556	0	
O	-0.7071513	0.9636718	-1.1082625	0	
C	0.1888528	-0.2879778	0.8002118	0	
N	1.6399645	-0.0722648	0.5831206	0	
C	2.3292869	1.4457522	0.1894637	0	
O	1.9244981	2.0879339	-0.7085821	0	
H	-2.0990157	-1.7719981	0.1548239	0	
H	-2.6060945	-0.7351146	-1.1809343	0	
H	-2.5187930	-0.0770616	0.4404475	0	
H	-0.1339659	-1.0445699	-1.1814173	0	
H	0.1619157	1.3680566	-1.2458227	0	
H	-0.1895171	0.5366822	1.3912635	0	
H	0.0489911	-1.2058501	1.3587091	0	
H	2.0961179	-0.8396576	0.1035903	0	
H	2.5327234	0.7433645	1.1842753	0	
15
Properties=species:S:1:pos:R:3:molID:I:1:R:3 Nmols=1 Comp=VC(3) HF_energy=-9293.1625084 pbc="F F F"
C	-0.4791359	1.5010542	-0.2071758	0	
C	-0.1851638	0.0564245	0.1275676	0	
C	-1.0479862	-1.0185534	-0.4762299	0	
C	-1.1449569	-0.6943139	1.0123887	0	
O	1.1802357	-0.2353014	0.2835463	0	
C	2.8603642	-0.3340129	-0.3550501	0	
O	3.1829727	-0.5555304	-1.4227521	0	
H	0.0037183	1.7713319	-1.1404296	0	
H	-0.0938546	2.1474602	0.5742718	0	
H	-1.5430656	1.6757549	-0.3064702	0	
H	-1.8594356	-0.7276210	-1.1138236	0	
H	-0.5555803	-1.9333006	-0.7369081	0	
H	-2.0210903	-0.1872970	1.3662125	0	
H	-0.7118346	-1.4042286	1.6871787	0	
H	2.4204728	-0.0662565	0.7158936	0	
14
Properties=species:S:1:pos:R:3:molID:I:1:R:3 Nmols=1 Comp=VC(3) HF_energy=-8724.0680211 pbc="F F F"
O	-2.2696894	0.0976693	-1.3945512	0	
C	-2.4209031	0.3967860	-0.2760504	0	
N	-1.0801586	0.5148275	0.8501931	0	
C	-0.2488027	-0.6824302	1.0487696	0	
C	0.7852236	-0.8535632	-0.0896934	0	
C	1.7494111	0.2538586	-0.1003212	0	
C	2.5272167	1.1536128	-0.1020517	0	
H	-2.4400214	0.5954409	0.9253942	0	
H	-0.5441721	1.3731520	0.8252960	0	
H	-0.9050648	-1.5467338	1.0561901	0	
H	0.2596138	-0.6415943	2.0045503	0	
H	1.3179686	-1.7908509	0.0336436	0	
H	0.2535487	-0.8770448	-1.0333091	0	
H	3.2162197	1.9465700	-0.1043914	0	
16
Properties=species:S:1:pos:R:3:molID:I:1:R:3 Nmols=1 Comp=VC(3) HF_energy=-8753.9936197 pbc="F F F"
C	-1.3209080	-0.0999500	1.2849537	0	
C	-1.1804972	-0.0322050	-0.2158984	0	
N	-0.8539741	1.3136083	-0.7709976	0	
C	0.1368072	0.1883418	-0.9007088	0	
C	1.4352599	0.2891323	-0.1773173	0	
C	1.9419793	-1.7680705	-0.1448370	0	
O	1.6839001	-2.2528758	-1.1712518	0	
H	-0.6579306	0.6109685	1.7560202	0	
H	-2.3351421	0.1493957	1.5782982	0	
H	-1.0998853	-1.0977539	1.6521688	0	
H	-1.8903202	-0.6242853	-0.7654426	0	
H	-1.3341690	1.5158010	-1.6356025	0	
H	0.2125714	-0.2593825	-1.8741308	0	
H	1.3571941	0.8355683	0.7546706	0	
H	2.2226035	0.7135337	-0.7900483	0	
H	2.0446410	-1.0475760	0.6733139	0	
10
Properties=species:S:1:pos:R:3:molID:I:1:R:3 Nmols=1 Comp=VC(3) HF_energy=-9561.2939806 pbc="F F F"
O	3.0808042	-0.1663984	0.2731981	0	
C	2.0391233	-0.6076805	0.3575935	0	
N	0.4224250	0.3679563	-0.1004848	0	
C	-0.5008127	1.2448327	-0.4759771	0	
N	-1.7416247	0.7389176	-0.3828219	0	
C	-1.5493111	-0.5161980	0.0759761	0	
N	-0.2713286	-0.7849144	0.2603083	0	
H	1.0205137	-1.2952866	0.5309462	0	
H	-0.2771626	2.2280069	-0.8093037	0	
H	-2.3328865	-1.2071157	0.2665955	0	
13
Properties=species:S:1:pos:R:3:molID:I:1:R:3 Nmols=1 Comp=VC(3) HF_energy=-10161.8918896 pbc="F F F"
C	-1.7824175	0.0264322	-1.1293934	0	
O	-1.2543781	-0.0466903	0.2204615	0	
C	0.0628038	-0.0158251	0.4463793	0	
N	0.9961467	0.0787017	-0.4523690	0	
N	0.4751771	-0.0871731	1.6986914	0	
C	2.0670113	-0.0344430	1.7528997	0	
O	2.5679510	-0.0906179	2.8302789	0	
H	-2.8506892	-0.0188258	-1.0145139	0	
H	-1.4350824	-0.8106849	-1.7179295	0	
H	-1.4971087	0.9574894	-1.5979209	0	
H	0.8361878	0.1405560	-1.4319540	0	
H	-0.1737550	-0.1621546	2.4542771	0	
H	1.9881232	0.0632455	0.2843318	0	
11
Properties=species:S:1:pos:R:3:molID:I:1:R:3 Nmols=1 Comp=VC(3) HF_energy=-9126.2955425 pbc="F F F"
O	-2.2514554	-1.7978748	0.1026546	0	
C	-2.3617770	-0.6588352	0.0225237	0	
C	-0.4321721	0.3076554	-0.0257169	0	
C	0.3199066	1.4437610	-0.0974371	0	
N	1.6835271	1.1364884	-0.0625096	0	
C	1.7542267	-0.1588825	0.0284578	0	
N	0.5055637	-0.7188454	0.0551031	0	
H	-2.1489026	0.4166320	-0.0500294	0	
H	-0.0067495	2.4536438	-0.1710454	0	
H	2.6479046	-0.7344874	0.0774108	0	
H	0.2899178	-1.6892653	0.1205984	0	
13
Properties=species:S:1:pos:R:3:molID:I:1:R:3 Nmols=1 Comp=VC(3) HF_energy=-10262.9088866 pbc="F F F"
O	-0.2732854	0.9398409	0.6251536	0	
C	-0.8398434	-0.3409519	0.3534311	0	
C	-1.3061138	-0.5963094	-1.0647979	0	
C	0.0216790	-1.1431048	-0.5761188	0	
O	1.1970656	-0.5485627	-1.0146766	0	
C	2.1382576	0.7184343	0.0566519	0	
O	2.6839175	0.4735917	1.0187567	0	
H	-0.9582636	1.6083123	0.7575985	0	
H	-1.3467705	-0.8061170	1.1750211	0	
H	-2.1285217	-1.2668502	-1.2154555	0	
H	-1.2358891	0.2318877	-1.7410912	0	
H	0.0698795	-2.2007371	-0.3951155	0	
H	1.5491185	0.8306770	-0.8976363	0	
12
Properties=species:S:1:pos:R:3:molID:I:1:R:3 Nmols=1 Comp=VC(3) HF_energy=-8692.6614806 pbc="F F F"
O	-2.3224640	-1.6404160	0.5561569	0	
C	-1.2729077	-1.4848532	0.9842810	0	
C	-0.3780641	0.4746133	0.5999463	0	
C	1.0929321	0.7933863	0.3983314	0	
C	0.1956792	0.6046967	-0.8153289	0	
C	0.3507365	-0.6112745	-1.5585487	0	
N	0.4693084	-1.5969959	-2.1216245	0	
H	-0.3045977	-1.0879273	1.3096574	0	
H	-1.0035709	1.2923157	0.9136508	0	
H	1.8305514	0.0336098	0.5824555	0	
H	1.4355522	1.7929396	0.5879889	0	
H	-0.0455554	1.4650255	-1.4072463	0	
17
Properties=species:S:1:pos:R:3:molID:I:1:R:3 Nmols=1 Comp=VC(3) HF_energy=-8321.4066422 pbc="F F F"
O	1.7922341	-1.1444070	2.1569413	0	
C	2.5888454	-0.9199293	1.3364492	0	
C	1.6338621	-0.1750643	-0.4052571	0	
C	0.3996365	0.4751496	0.2111149	0	
C	-0.7480031	0.6139373	-0.7737189	0	
C	-1.6621136	-0.5687348	-0.9885687	0	
C	-2.1647634	0.6576764	-0.2478406	0	
H	3.0608415	-0.5932132	0.4060942	0	
H	2.2090002	0.5089315	-1.0241958	0	
H	1.3870800	-1.0686733	-0.9692083	0	
H	0.6591819	1.4562635	0.5994087	0	
H	0.0698523	-0.1245218	1.0558035	0	
H	-0.5352656	1.2182936	-1.6350471	0	
H	-2.0433366	-0.7465452	-1.9748599	0	
H	-1.4704210	-1.4535293	-0.4128356	0	
H	-2.8740519	1.2871551	-0.7482662	0	
H	-2.3025889	0.5772211	0.8127975	0	
19
Properties=species:S:1:pos:R:3:molID:I:1:R:3 Nmols=1 Comp=VC(3) HF_energy=-8352.2161667 pbc="F F F"
C	-2.4540483	-0.7353485	0.3983417	0	
C	-1.1252741	-0.9520156	-0.3492843	0	
C	0.0258342	-0.1961556	0.3149325	0	
C	1.3210828	-0.0926013	-0.3903636	0	
C	2.5055963	0.5706898	0.3104640	0	
C	-0.3737511	1.6737498	-0.4766936	0	
O	-0.9400370	2.6829245	-0.5433615	0	
H	-3.2585305	-1.2652796	-0.0979901	0	
H	-2.3842804	-1.1031545	1.4162605	0	
H	-2.7052671	0.3175963	0.4290504	0	
H	-0.9134343	-2.0155563	-0.3937969	0	
H	-1.2192872	-0.6042787	-1.3735383	0	
H	-0.0353025	0.0581967	1.3561988	0	
H	1.4841737	-0.6862127	-1.2709403	0	
H	1.0036449	-1.1479405	0.4439986	0	
H	3.2691195	0.8140846	-0.4161121	0	
H	2.9529918	-0.0600399	1.0713200	0	
H	2.1834896	1.4930642	0.7818496	0	
H	0.7828095	1.1891275	-1.1301154	0	
18
Properties=species:S:1:pos:R:3:molID:I:1:R:3 Nmols=1 Comp=VC(3) HF_energy=-8787.7752452 pbc="F F F"
C	-1.5186898	-0.3372064	-1.2447198	0	
C	-1.1563536	0.3893493	0.0625198	0	
C	0.3632739	0.5016766	0.2962076	0	
C	0.6695768	1.4227503	1.4905343	0	
N	0.9921524	-0.8208547	0.5268934	0	
C	1.7121550	-1.8151457	-0.7430154	0	
O	1.0886066	-2.3875475	-1.5444717	0	
H	-1.1723351	0.2341770	-2.1004177	0	
H	-1.0599037	-1.3142562	-1.2899273	0	
H	-2.5934298	-0.4521675	-1.3333413	0	
H	-1.5795665	1.3890991	0.0467608	0	
H	-1.5928969	-0.1299783	0.9113142	0	
H	0.8235825	0.9180714	-0.5951010	0	
H	0.2868183	2.4228447	1.3179719	0	
H	0.2074438	1.0289999	2.3901676	0	
H	1.7388548	1.4782204	1.6521187	0	
H	0.5426855	-1.3418871	1.2713975	0	
H	2.2594759	-1.1939153	0.1384778	0	
